# vtk DataFile Version 2.0
sampleSurface
ASCII
DATASET POLYDATA
POINTS 20016 float
-16.0089 14.4659 7.61031 -21.8588 10.794 7.61031 -22.4976 11.6954 7.61031 -24.5966 14.6577
7.61031 -8.25708 -30.1403 7.61031 -21.3254 -23.8919 7.61031 -21.9348 -24.8134 7.61031
31.1779 13.6053 0.712007 -25.4991 8.21454 21.8544 -22.426 14.1507 22.6883 -22.4482
14.2192 22.6324 -22.4178 14.0945 22.7588 -22.483 14.2954 22.595 -22.4241 14.0545
22.8392 -22.5278 14.3741 22.5785 -22.4446 14.0335 22.9238 -22.5797 14.4499 22.5841
-17.0906 17.6536 25.0033 -17.111 17.7233 24.9482 -17.0848 17.5958 25.0728 -17.1446
17.8002 24.9113 -22.4778 14.0327 23.0071 -17.0939 17.554 25.1519 -22.6351 14.5177
22.6115 -17.189 17.8792 24.895 -17.1174 17.531 25.2353 -22.5215 14.0524 23.0832
-17.2413 17.9548 24.9004 -22.6903 14.5728 22.6587 -17.1536 17.5283 25.3172 -22.5727
14.0911 23.147 -17.2979 18.0218 24.9273 -22.7415 14.6115 22.7225 -17.2001 17.5461
25.3922 -22.6279 14.1462 23.1942 -17.3549 18.0757 24.9737 -22.7852 14.6312 22.7986
-17.2537 17.5832 25.455 -22.6833 14.214 23.2216 -17.4085 18.1128 25.0365 -17.6039
17.7148 25.1907 -22.8184 14.6304 22.8819 -22.7352 14.2898 23.2272 -17.3107 17.6371
25.5014 -22.8389 14.6094 22.9665 -17.3922 17.8625 25.3427 -17.455 18.1307 25.1114
-22.7801 14.3685 23.2107 -22.8452 14.5694 23.0469 -22.8148 14.4447 23.1733 -22.837
14.5132 23.1174 -17.3673 17.7042 25.5282 -17.4912 18.128 25.1933 -17.4196 17.7797
25.5337 -17.6851 17.4854 25.5704 -17.6892 17.4768 25.5837 -17.7158 17.4994 25.5556
-17.5146 18.1049 25.2767 -17.464 17.8587 25.5173 -17.5818 17.5526 25.6559 -17.5238
18.0631 25.3558 -17.4976 17.9357 25.4804 -17.5179 18.0054 25.4253 -17.4744 17.6284
25.7281 -17.4785 17.6198 25.7414 -17.504 17.6471 25.7076 24.1791 17.106 20.0923
-17.8717 17.7426 25.5366 -17.8177 17.2735 25.917 -26.6956 9.903 21.8544 -17.6599
17.8903 25.6886 -17.606 17.4211 26.0691 -17.9716 17.5331 25.8791 -17.9754 17.5247
25.8927 -22.867 12.6144 24.8832 -17.9818 17.5347 25.8919 -22.8687 12.5344 24.9237
-17.9097 17.0372 26.2745 -22.8813 12.6997 24.8599 -22.8864 12.4653 24.9784 -18.0027
17.4641 25.9897 -17.7598 17.6808 26.0312 -22.9106 12.7846 24.8553 -17.7636 17.6723
26.0447 -22.9187 12.4117 25.0438 -17.77 17.6823 26.0439 -17.6979 17.1848 26.4266
-18.0551 17.5456 25.9834 -17.791 17.6117 26.1417 -22.953 12.8633 24.8696 -22.9635
12.3773 25.1153 -27.8045 10.7284 20.5793 -27.8076 10.6479 20.6185 -27.8173 10.8142
20.5571 -27.8266 10.5783 20.6722 -27.8119 10.6325 20.6792 -27.8246 10.7072 20.6268
-27.8458 10.6144 20.6496 -17.8433 17.6932 26.1354 -17.9915 16.7909 26.6277 -27.869
10.6823 20.5933 -18.1446 17.7834 25.8772 -27.8364 10.559 20.7205 -27.8161 10.5682
20.745 -27.8533 10.7873 20.5916 -23.0056 12.9304 24.902 -27.8454 10.8996 20.5535
-27.9042 10.7581 20.5556 -27.86 10.5243 20.7367 -23.0178 12.3644 25.1881 -27.8413
10.5199 20.8014 -18.0966 17.2227 26.3548 -27.8369 10.5188 20.8199 -27.8961 10.8674
20.5759 -17.7798 16.9385 26.7797 -27.9493 10.8367 20.5391 -17.9328 17.931 26.0292
-27.8866 10.9787 20.5688 -27.9058 10.4896 20.8075 -27.8603 10.4998 20.8866 -23.0647
12.9813 24.9502 -23.0779 12.374 25.2573 -27.8729 10.4876 20.8987 -17.8849 17.3704
26.5068 -27.9501 10.9419 20.5808 -27.8469 10.7251 20.8414 -27.864 10.7948 20.7843
-27.9075 10.7871 20.7336 -27.9107 10.7066 20.7729 -28.001 10.9126 20.5448 -27.9082
10.7253 20.7755 -27.9209 10.8 20.7232 -27.8496 10.6626 20.9089 -27.8996 10.8669
20.7414 -27.9204 10.8729 20.7115 -27.9296 10.637 20.8266 -27.9383 11.0461 20.6019
-27.9124 10.661 20.8413 -18.0631 16.5348 26.9761 -27.9606 10.4765 20.8798 -27.9496
10.8801 20.688 -27.8919 10.5001 20.9704 -27.9216 10.4768 20.9761 -27.8719 10.6115
20.9822 -23.1264 13.0126 25.0109 -27.9484 10.9583 20.7079 -27.9514 10.9365 20.7157
-23.1395 12.4053 25.318 -27.9332 10.6116 20.9162 -27.9631 10.583 20.891 -28.0115
11.0057 20.6059 -28.0558 10.9808 20.5723 -27.9924 10.9602 20.6723 -18.1802 16.9712
26.7155 -17.8514 16.6824 27.1281 -27.9969 11.0972 20.6506 -28.0208 10.486 20.9488
-27.9342 10.5207 21.0471 -27.9122 10.5752 21.0562 -27.9897 11.0374 20.7232 -28.0159
10.9989 20.7088 -27.9691 10.5804 20.9951 -28.0088 10.5482 20.9618 -27.9797 10.487
21.0468 -28.0463 11.0347 20.6771 -23.1864 13.0222 25.0801 -23.1987 12.4562 25.3662
-28.0762 11.0546 20.6495 -28.1101 11.0365 20.6199 -17.9685 17.1188 26.8675 -18.3388
17.6003 26.3254 -18.1245 16.2693 27.3193 -27.9679 10.5564 21.1259 -28.0584 11.1286
20.7115 -27.9842 10.5602 21.1114 -28.0886 11.0497 20.7214 -28.0414 11.1048 20.7563
-28.0823 10.5173 21.0097 -28.0179 10.5696 21.0725 -28.0637 10.5352 21.0342 -28.1078
11.0985 20.7022 -23.2407 13.0093 25.1529 -28.0433 10.5176 21.106 -23.2512 12.5233
25.3986 -28.16 11.076 20.6842 -28.1398 11.0853 20.7087 -18.4224 17.837 26.212
-18.127 17.748 26.4774 -17.9127 16.4169 27.4713 5.42061 -35.4672 7.61031 -18.2534
16.7096 27.0713 -28.0351 10.5562 21.1865 -28.1186 11.1381 20.7805 -28.0384 10.6159
21.1589 -28.1646 11.0856 20.7525 -23.2856 12.9749 25.2244 -28.1 11.1559 20.805
-28.1409 10.5685 21.0584 -23.2936 12.602 25.413 -28.076 10.5798 21.1431 -11.853
21.1143 27.589 -28.1239 10.5446 21.1032 -35.9058 0.840426 7.61031 -11.8715 21.1852
27.5348 -28.1725 11.1474 20.7458 -11.8495 21.055 27.6573 -28.108 10.5665 21.1496
-28.2023 11.0966 20.7609 -11.904 21.2629 27.4984 -28.1979 11.0955 20.7794 -18.2106
17.9846 26.364 -23.3179 12.9213 25.2898 -23.323 12.6869 25.4083 -18.0416 16.8572
27.2234 -18.1754 15.9946 27.657 -11.8613 21.0114 27.7351 -23.3355 12.8522 25.3446
-23.3373 12.7722 25.385 -28.0933 10.6841 21.1865 -28.1735 11.125 20.8528 -28.1926
10.6359 21.0915 -28.1092 10.5746 21.234 -28.2387 11.104 20.8 -11.948 21.3421
27.4823 -28.1615 11.1873 20.8659 -28.1396 10.6104 21.2023 -28.1854 10.576 21.1641
-28.234 11.0968 20.8447 -28.1694 10.6304 21.1747 -28.236 11.1781 20.805 -11.8877
20.9864 27.817 -28.2466 11.0846 20.8568 -17.9637 16.1422 27.809 -28.145 10.76
21.1922 -28.2192 11.0903 20.9237 -28.2338 10.715 21.1068 -18.316 16.4384 27.4219
-12.0007 21.4174 27.4875 -28.253 11.0768 20.9299 -28.1851 10.6105 21.2651 -28.3059
11.1039 20.8606 -28.2234 10.7049 21.1796 -28.2217 11.1968 20.9348 -28.2826 11.0534
20.9356 -28.2043 10.6593 21.2459 -28.2527 11.0363 20.9881 -28.19 10.8386 21.1756
-28.244 10.6272 21.2127 -28.2619 10.8003 21.1032 -11.9269 20.9818 27.8975 -28.2942
11.1883 20.8757 -28.2579 11.0377 21.0108 -18.216 15.7111 27.9888 -28.2716 10.9667
21.0418 -28.2747 10.8862 21.0811 -28.2253 10.9144 21.138 -28.2485 10.9823 21.0817
-18.1043 16.586 27.5739 -28.2662 10.7849 21.1638 -28.3034 11.004 21.0105 -12.0584
21.4837 27.5138 -28.2578 10.6613 21.2777 -28.2949 10.865 21.1286 -28.3076 10.9398
21.0763 -28.3615 11.085 20.9303 -28.2765 11.1837 21.0072 -28.2657 10.7232 21.271
-28.2957 10.6946 21.2458 -11.9761 20.9978 27.9711 -28.3429 11.1774 20.9531 -18.0042
15.8587 28.1408 -18.3681 16.1579 27.7668 -28.3223 10.7237 21.2709 -28.4018 11.0488
21.0043 -18.6271 17.6682 26.6611 -12.1172 21.5364 27.5593 -28.3222 11.149 21.078
-28.3369 10.7736 21.2611 -28.3197 10.7977 21.2759 -17.8475 14.7117 28.9281 -17.8465
14.633 28.9708 -28.3789 11.1462 21.0319 -18.2426 15.0869 28.4897 -18.246 15.4191
28.3142 -18.2432 15.0752 28.5011 -28.3741 10.7933 21.2451 -12.032 21.0334 28.0327
-28.4241 10.9976 21.0776 -17.8646 14.7959 28.9025 -17.8615 14.5649 29.0277 -28.3557
11.095 21.1425 -28.3649 10.859 21.2576 -28.4098 10.8654 21.2022 -28.3625 10.8777
21.2602 -28.4268 10.9351 21.1451 -18.7046 17.9033 26.5407 -18.1563 16.3055 27.9188
-18.1375 15.1526 28.5742 -28.3997 11.0968 21.1068 -18.4154 17.8158 26.8131 -28.3747
11.0254 21.1962 -28.3778 10.9449 21.2354 -12.1732 21.572 27.621 -28.3912 10.9578
21.225 -17.8966 14.8797 28.8958 -28.4039 11.0326 21.1727 -17.8916 14.5123 29.0949
-18.0319 15.2299 28.6474 -18.0343 15.5667 28.4662 -18.0325 15.2182 28.6588 -12.0908
21.0861 28.0782 -18.4929 18.051 26.6927 -18.4095 15.8683 28.1056 -17.9413 14.9575
28.9083 -17.9347 14.4786 29.1678 -18.2656 15.1189 28.6329 -12.2224 21.5881 27.6945
-12.1485 21.1524 28.1045 -18.1977 16.0159 28.2577 -17.9955 15.0238 28.9393 -18.0538
15.2665 28.7849 -12.2615 21.5834 27.775 -17.9879 14.4662 29.2415 -12.2012 21.2277
28.1098 -18.2746 14.8109 28.9446 -18.4402 15.5701 28.438 -12.2879 21.5584 27.857
-12.2453 21.3069 28.0936 -18.0558 15.0743 28.9866 -18.0475 14.4759 29.3109 -12.2998
21.5148 27.9347 -12.2777 21.3846 28.0572 -12.2963 21.4555 28.003 -36.5447 1.74196
7.61031 -18.0629 14.9585 29.0966 -18.2284 15.7177 28.59 -18.2731 14.4954 29.2488
-18.1178 15.1054 29.0471 -18.4602 15.2634 28.7635 -18.1096 14.507 29.3714 -18.9197
17.749 26.9901 -36.6303 1.86278 7.61031 -18.4626 15.1806 28.8474 -18.4629 15.1691
28.859 30.8042 19.9347 7.61031 -18.4705 15.1833 28.8558 -18.0614 14.643 29.4008
-23.9326 -27.8342 7.61031 -18.9911 17.9825 26.8629 -18.2484 15.4111 28.9156 -18.1775
15.1151 29.1165 -18.708 17.8966 27.1422 -18.1698 14.5575 29.4187 -18.525 15.2852
28.8327 -18.2509 15.3282 28.9994 -18.2512 15.3167 29.0111 -18.2588 15.3309 29.0079
-18.7794 18.1301 27.0149 -18.4676 14.8756 29.1505 -18.2307 15.1027 29.1902 -18.2241
14.6239 29.4497 -18.3133 15.4328 28.9848 -18.2738 15.069 29.2631 -18.2559 15.0233
29.3025 -18.2687 14.7016 29.4622 -18.3039 15.0164 29.3303 -28.2369 12.0783 21.8544
-18.3007 14.7854 29.4555 -18.3189 14.9483 29.3872 -18.3178 14.8695 29.4299 -18.74
15.6706 28.7579 -24.2617 14.8679 24.8243 -24.2784 14.9381 24.7676 -18.6702 15.2547
29.0647 -24.2645 14.8052 24.8917 -24.3134 15.0109 24.7254 -18.5282 15.8183 28.9099
32.2239 18.266 7.61031 32.231 18.2574 7.61031 -24.2867 14.7543 24.9651 -24.3644
15.0814 24.7006 -18.4585 15.4023 29.2167 -10.5129 22.3477 28.6989 -19.2163 17.8427
27.3122 -10.5092 22.3502 28.7015 -24.3267 14.7185 25.0395 -24.4279 15.1448 24.6948
-19.2815 18.0742 27.1782 -19.0045 17.9903 27.4642 -18.9627 16.0539 28.6959 -24.3817
14.7003 25.1099 -18.8807 15.632 28.9914 -24.4996 15.1969 24.7085 -19.0698 18.2218
27.3302 -18.751 16.2016 28.848 -18.669 15.7797 29.1434 -24.448 14.7011 25.1715
-24.5746 15.2339 24.7407 -10.2135 22.5564 28.9139 -10.671 22.0431 29.2149 -24.5212
[...]
CELL_DATA 39025
FIELD attributes 1
zone 1 39025 float
0 0 1 1 1 1 2 2 3 3 3
3 3 3 4 4 5 5 3 3 3
3 3 6 6 3 3 3 3 7 7
6 6 8 8 8 8 9 9 9 9
9 9 9 9 9 9 9 9 9 9
9 9 9 9 10 10 10 10 10 10
10 10 10 10 3 3 3 3 3 3
11 11 5 5 12 12 13 13 13 13
3 3 3 3 3 3 10 10 10 10
10 10 10 10 14 14 14 14 10 10
10 10 10 10 10 10 14 14 14 14
14 14 10 10 10 10 10 10 14 14
14 14 10 10 10 10 10 10 9 9
9 9 15 15 15 15 15 15 15 15
15 15 15 15 15 15 15 15 15 15
15 15 15 15 15 15 15 15 15 15
15 15 15 15 15 15 15 15 15 15
15 15 15 15 15 15 15 15 15 15
15 15 15 15 15 15 15 15 15 15
15 15 15 15 15 15 15 15 15 15
15 15 15 15 15 15 15 15 15 15
15 16 16 15 15 9 9 9 9 17
17 17 17 9 9 17 17 17 17 17
17 17 17 9 9 9 9 9 9 9
9 9 9 9 9 9 9 17 17 17
17 9 9 9 9 9 9 17 17 15
15 15 15 15 15 16 16 15 15 15
15 15 15 15 15 15 15 15 15 15
15 15 15 15 15 15 15 15 15 15
15 15 15 15 15 15 15 15 15 15
15 15 15 15 15 15 15 15 15 15
15 15 15 15 15 15 15 15 15 15
15 15 15 15 15 15 15 15 15 15
15 15 15 15 15 15 15 15 15 15
3 3 3 3 16 16 15 15 15 15
16 16 16 16 15 15 15 15 18 18
19 19 20 20 3 3 20 20 20 20
19 19 19 19 18 18 18 18 20 20
21 21 21 21 21 21 21 21 18 18
15 15 16 16 9 9 15 15 15 15
15 15 15 15 16 16 16 16 22 22
22 22 22 22 22 22 15 15 16 16
16 16 16 16 16 16 16 16 16 16
16 16 16 16 16 16 16 16 16 16
16 16 16 16 16 16 16 16 16 16
16 16 16 16 16 16 16 16 16 16
16 16 16 16 16 16 16 16 16 16
16 16 16 16 16 16 16 16 16 16
16 16 16 16 16 16 16 16 16 16
16 23 23 23 24 24 24 24 24 24
24 24 24 24 24 24 24 24 24 24
24 24 24 24 24 24 24 24 24 24
24 24 24 24 24 24 24 24 24 24
24 24 24 24 24 24 24 24 24 24
24 24 24 24 24 24 24 24 24 24
24 24 24 24 24 24 24 24 24 24
24 24 24 24 24 24 24 25 25 3
3 3 3 3 3 3 3 24 24 24
24 24 24 24 24 24 25 25 25 25
26 26 26 26 3 3 3 3 26 26
26 26 3 3 3 3 26 26 26 26
26 26 14 14 26 26 14 14 14 14
10 10 10 10 10 10 10 10 10 10
10 10 10 10 10 10 10 10 10 10
10 10 10 10 10 10 10 10 10 10
10 10 10 10 10 10 10 10 10 10
10 10 10 10 10 10 10 10 10 10
10 10 10 10 10 10 10 10 10 10
10 10 10 10 10 10 10 10 10 10
10 10 10 10 10 10 10 10 10 26
26 10 10 10 10 9 9 9 9 9
9 10 10 4 4 1 1 1 1 10
10 9 9 17 17 10 10 14 14 9
9 14 14 9 9 9 9 9 9 15
15 17 17 17 17 17 17 9 9 9
9 9 9 9 9 9 9 9 9 9
9 9 9 9 9 9 9 9 9 9
9 9 9 9 9 9 9 9 9 9
9 9 9 9 9 9 9 9 9 9
9 9 9 9 9 9 9 9 9 9
9 9 9 9 9 9 9 9 9 9
9 9 9 9 9 9 9 9 9 9
9 9 17 17 17 17 9 9 9 9
9 9 9 9 9 9 9 9 9 9
9 9 9 9 9 9 9 9 9 9
9 9 9 9 9 9 9 9 9 9
9 9 9 9 9 9 9 9 9 9
9 9 9 9 9 9 9 9 9 9
9 9 9 9 9 9 9 9 9 9
9 9 9 9 9 9 9 9 9 27
27 27 27 15 15 15 15 15 15 15
15 15 15 16 16 16 16 16 16 16
16 16 16 16 16 16 16 16 16 16
16 16 16 16 16 16 16 16 16 16
16 16 16 16 16 16 16 16 16 16
16 16 16 16 16 16 16 16 16 16
16 16 16 16 16 16 16 16 16 16
16 16 16 16 16 16 16 16 16 16
16 16 16 16 16 16 16 16 16 16
3 3 3 3 16 16 16 16 16 16
16 16 16 16 16 16 28 28 28 28
28 28 28 28 28 28 28 28 28 28
28 28 28 28 29 29 29 29 29 29
29 29 28 28 29 29 29 29 29 29
28 28 28 28 29 29 28 28 29 29
28 28 28 28 29 29 29 29 29 29
28 28 29 29 29 29 29 29 29 29
29 29 29 29 29 29 29 29 29 29
29 29 29 29 29 29 29 29 29 29
29 29 29 29 29 29 29 29 29 29
29 29 29 29 29 29 29 29 29 29
29 29 29 29 29 29 29 29 29 29
29 29 29 29 29 29 29 29 29 29
29 29 29 29 29 29 29 28 28 28
28 28 28 28 28 28 28 29 29 29
29 29 29 29 29 29 29 29 29 29
29 29 29 29 29 29 29 29 29 29
29 29 29 29 29 29 29 29 29 29
29 29 29 29 29 29 29 29 29 29
29 29 29 29 29 29 29 29 29 29
29 29 29 29 29 29 29 29 29 29
29 29 29 29 29 29 29 29 29 29
28 28 29 29 28 28 13 13 23 23
28 28 28 28 29 29 28 28 28 28
29 29 29 29 22 22 22 22 22 22
22 22 22 22 22 22 22 22 22 22
22 22 22 22 22 22 22 22 22 22
22 22 22 22 22 22 22 22 22 22
22 22 22 22 22 22 22 22 22 22
22 22 22 22 22 22 22 22 22 22
22 22 22 22 22 22 22 22 22 22
22 22 22 22 22 22 22 22 22 22
22 22 22 22 22 22 22 22 22 22
22 22 22 22 22 22 22 22 22 22
22 22 22 22 22 3 3 3 3 3
26 26 10 10 26 26 26 26 10 10
26 26 26 26 10 10 26 26 10 10
14 14 14 14 14 14 10 10 10 10
3 3 3 3 3 3 10 10 10 10
10 10 9 9 9 9 9 9 9 9
9 9 9 9 9 9 15 15 15 15
15 15 15 15 15 15 15 15 15 15
15 15 15 15 17 17 17 17 17 17
9 9 9 9 15 15 17 17 17 17
17 17 17 17 17 17 17 17 17 17
17 17 17 17 17 17 17 17 17 17
17 17 17 17 17 17 17 17 17 17
17 17 17 17 17 17 17 17 17 17
17 17 17 17 17 17 17 17 17 17
17 17 17 17 17 17 17 17 17 17
17 17 17 17 17 17 17 17 17 17
17 15 15 16 16 16 16 15 15 15
15 16 16 15 15 15 15 30 30 18
18 18 18 4 4 25 25 25 25 25
25 19 19 26 26 26 26 26 26 26
26 26 26 26 26 26 26 26 26 26
26 26 26 26 26 26 26 26 26 26
26 26 26 26 26 26 26 26 26 26
26 26 26 26 26 26 26 26 26 26
26 26 26 26 26 26 26 26 26 26
26 26 26 26 26 26 26 26 26 26
26 26 26 26 26 26 10 10 10 10
10 10 10 10 24 24 3 3 3 3
3 3 3 3 3 3 26 26 26 26
26 26 14 14 26 26 10 10 10 10
15 15 10 10 10 10 15 15 15 15
9 9 10 10 10 10 15 15 15 15
9 9 6 6 16 16 16 16 29 29
28 28 28 28 28 28 28 28 28 28
28 28 28 28 28 28 28 28 28 28
28 28 28 28 28 28 28 28 28 28
28 28 28 28 28 28 28 28 28 28
28 28 28 28 28 28 28 28 28 28
28 28 28 28 28 28 28 28 28 28
28 28 28 28 28 28 28 28 28 28
28 28 28 29 29 29 29 19 19 17
17 17 17 17 17 18 18 18 18 18
18 29 29 28 28 29 29 28 28 15
15 28 28 29 29 29 29 29 29 29
28 28 28 28 29 29 29 29 29 29
28 28 28 28 29 29 29 29 29 29
29 29 29 29 29 22 22 29 29 29
29 22 22 22 22 22 22 29 29 22
22 22 22 22 22 3 3 3 3 3
3 3 3 3 3 3 3 3 3 3
3 3 3 3 3 3 12 12 12 12
3 3 3 3 3 3 3 3 3 3
3 3 3 3 3 3 3 3 3 3
3 3 3 3 3 3 3 3 3 3
3 3 3 3 3 3 3 3 3 3
3 3 3 3 3 3 3 3 3 3
3 3 3 3 3 3 3 3 3 3
3 3 3 3 3 3 3 3 3 3
3 3 3 3 3 3 3 3 3 7
7 3 3 3 3 3 3 3 3 3
3 3 3 3 3 3 3 3 3 3
3 3 3 3 3 3 31 31 31 31
31 31 31 31 31 31 31 31 31 31
31 31 31 31 31 31 31 31 31 31
31 31 31 31 31 31 31 31 31 31
31 31 31 31 31 31 31 31 31 31
31 31 31 31 31 31 31 31 31 31
31 31 31 31 31 31 31 31 31 31
31 31 31 31 31 31 31 31 31 31
31 31 31 31 31 31 31 31 31 31
31 31 31 31 11 11 32 32 32 11
11 11 11 11 11 11 11 11 11 11
32 32 11 11 32 32 11 11 11 11
11 32 32 32 32 32 32 32 32 32
11 11 3 3 32 32 3 3 3 3
3 3 11 11 11 11 11 11 11 11
11 11 11 11 11 11 11 11 11 11
11 11 11 11 11 11 11 11 11 11
11 11 11 11 11 11 11 11 11 11
11 11 11 11 11 11 11 11 11 11
11 11 11 11 11 11 11 11 11 11
11 11 11 11 11 11 11 11 11 11
11 11 11 11 11 11 11 11 11 11
11 11 11 3 3 3 3 3 3 3
3 3 3 3 3 3 3 3 11 11
11 11 11 11 11 11 11 11 11 11
11 11 11 11 11 11 11 11 11 11
11 11 11 11 11 11 11 11 11 11
11 11 11 11 11 11 11 11 11 11
11 11 11 11 11 11 11 11 11 11
11 11 11 11 11 11 11 11 11 11
11 11 11 11 11 11 11 11 11 11
11 32 32 11 11 11 11 32 32 11
11 32 32 32 32 19 19 33 33 16
16 16 16 3 3 16 16 34 34 28
28 15 15 29 29 29 29 29 29 28
28 29 29 29 29 28 28 28 28 28
28 28 28 29 29 28 28 28 28 22
22 29 29 22 22 22 22 22 22 22
22 22 22 22 22 22 22 22 22 22
22 22 22 22 22 22 22 22 22 22
22 22 22 22 22 22 22 22 22 22
22 22 22 22 22 22 22 22 22 22
22 22 22 22 22 22 22 22 22 22
22 22 22 22 22 22 22 22 22 22
22 22 22 22 22 22 22 22 22 22
1 1 1 1 1 1 3 3 3 3
3 3 3 3 3 3 3 3 3 3
22 22 22 22 3 3 3 3 3 3
22 22 3 3 3 3 22 22 3 3
3 3 3 3 3 3 3 3 3 3
3 3 3 3 31 31 31 31 3 3
31 31 3 3 3 3 31 31 31 31
3 3 31 31 11 11 32 32 32 32
32 32 32 32 32 32 11 11 32 32
32 32 11 11 11 11 11 11 11 11
11 11 11 11 11 11 32 32 32 32
11 11 11 11 11 11 11 11 32 32
11 11 11 11 32 32 32 32 32 32
32 32 32 32 32 32 32 32 32 32
32 32 32 32 32 32 32 32 32 32
32 32 32 32 32 32 32 32 32 32
32 32 32 32 32 32 32 32 32 32
32 32 32 32 32 32 32 32 32 32
32 32 32 32 32 32 32 32 32 32
32 32 32 32 32 32 32 11 11 11
11 8 8 8 8 4 4 8 8 8
8 8 8 8 8 8 8 8 8 8
8 8 8 8 8 8 8 8 8 8
8 8 8 8 8 3 3 35 35 8
8 8 8 8 8 8 8 8 8 8
8 8 8 8 8 11 11 11 11 36
36 36 36 36 36 36 36 8 8 30
30 35 35 3 3 3 3 30 30 30
30 30 30 30 30 30 30 8 8 3
3 8 8 8 8 8 8 37 37 37
37 37 37 37 37 37 37 36 36 37
37 37 37 37 37 36 36 36 36 36
36 36 36 36 36 36 36 37 37 36
36 36 36 36 36 37 37 37 37 37
37 37 37 37 37 37 37 37 37 37
37 37 37 37 37 37 37 37 37 37
37 37 37 37 37 37 37 37 37 37
37 37 37 37 37 37 37 37 37 37
37 37 37 37 37 37 37 37 37 37
37 37 37 37 37 37 37 37 37 37
37 37 37 37 37 37 37 37 3 3
3 3 14 14 7 7 38 38 12 12
1 1 36 36 36 36 36 36 36 36
36 36 36 36 36 36 36 36 36 36
36 36 36 36 36 36 36 36 36 36
36 36 36 36 36 36 36 36 36 36
36 36 36 36 36 36 36 36 36 36
36 36 36 36 36 36 36 36 36 36
36 36 36 36 36 36 36 36 36 36
36 36 36 36 36 36 36 36 36 36
36 36 36 36 36 36 36 37 37 36
36 36 36 35 35 12 12 3 3 3
3 36 36 36 36 36 36 37 37 36
36 36 36 36 36 36 36 36 36 36
36 36 36 36 36 36 36 36 36 36
36 36 36 36 36 36 36 36 36 36
36 36 36 36 36 36 36 36 36 36
36 36 36 36 36 36 36 36 36 36
36 36 36 36 36 36 36 36 36 36
36 36 36 36 36 36 36 36 36 36
36 36 37 37 36 36 36 36 36 37
37 37 37 37 37 37 37 36 36 37
37 37 37 37 37 37 37 37 37 37
37 37 37 37 37 37 37 39 39 37
37 36 36 36 36 36 40 40 40 40
3 3 3 3 3 3 3 3 3 3
3 29 29 3 3 3 3 3 3 3
22 22 3 3 3 3 3 3 3 3
3 3 3 3 3 31 31 31 31 31
31 31 31 31 31 31 31 3 3 3
3 3 3 3 3 3 3 11 11 3
3 3 3 3 3 3 3 3 3 31
31 31 31 31 11 11 31 31 31 31
32 32 32 32 32 32 32 32 32 32
32 32 32 32 32 32 32 32 32 32
32 32 32 32 32 32 32 32 32 32
32 32 32 32 32 32 32 32 32 32
32 32 32 32 32 32 32 32 32 32
32 32 32 32 32 32 32 32 32 32
32 32 32 32 32 32 32 32 32 32
32 32 32 11 11 11 11 32 32 28
28 15 15 29 29 28 28 28 28 28
28 28 28 28 28 28 28 28 28 28
28 28 28 28 28 28 28 28 28 28
28 28 28 28 28 28 28 28 28 28
28 28 28 28 28 28 28 28 28 28
28 28 28 28 28 28 28 28 28 28
28 28 28 28 28 28 28 28 28 28
28 28 28 28 28 28 28 28 28 28
28 28 29 29 22 22 28 28 29 29
3 3 3 3 22 22 22 22 29 29
29 29 28 28 28 28 22 22 22 22
29 29 22 22 22 22 11 11 32 32
22 22 11 11 3 3 3 11 11 11
11 31 31 11 11 11 11 8 8 32
32 8 8 3 3 3 3 6 6 6
6 1 1 1 1 1 1 1 1 1
1 1 1 5 5 8 8 11 11 32
32 8 8 8 8 8 8 8 8 8
8 8 8 8 8 8 8 8 8 8
8 8 8 8 8 8 8 8 8 8
8 8 8 8 8 8 8 8 8 8
8 8 8 8 8 8 8 8 8 8
8 8 8 8 8 8 8 8 8 8
8 8 8 8 8 8 8 8 8 8
8 8 8 8 3 3 30 30 30 30
30 30 30 30 30 30 30 30 30 30
30 30 30 30 30 30 30 30 30 30
30 30 30 30 30 30 30 30 30 30
30 30 30 30 30 30 30 30 30 30
30 30 30 30 30 30 30 30 30 30
30 30 30 30 30 30 30 30 30 30
30 30 30 30 30 30 30 30 30 30
30 3 3 11 11 37 37 37 37 37
37 8 8 37 37 37 37 37 37 37
37 37 37 37 37 37 37 37 37 37
37 37 37 37 37 37 37 37 37 37
37 37 37 37 37 37 37 37 37 37
37 37 37 37 37 37 37 37 37 37
37 37 37 37 37 37 37 37 37 37
37 37 37 37 37 37 37 37 37 37
37 37 37 37 37 37 37 37 37 37
30 30 30 30 8 8 3 3 36 36
37 37 37 37 36 36 36 36 36 36
37 37 37 37 40 40 40 40 41 41
36 36 37 37 42 42 43 43 43 43
43 43 43 43 43 43 43 43 43 43
43 43 43 43 43 43 43 43 36 36
3 3 26 26 21 21 21 21 3 3
3 3 41 41 42 42 41 41 40 40
40 40 41 41 40 40 40 40 40 40
40 40 40 40 40 40 40 40 40 40
40 40 40 40 40 40 40 40 40 40
41 41 42 42 3 3 42 42 25 25
25 25 25 25 25 25 25 25 25 25
3 3 3 3 3 3 3 3 3 3
3 3 3 3 3 3 3 3 3 3
3 3 3 3 3 3 3 3 3 3
3 3 3 3 3 3 3 3 3 3
3 3 3 3 3 3 3 3 3 3
3 3 3 3 3 3 24 24 24 24
24 24 24 24 24 24 24 24 24 24
24 24 24 24 24 24 15 15 15 15
15 15 15 15 9 9 3 3 3 3
9 9 17 17 9 9 9 9 22 22
22 22 22 22 22 22 22 22 22 22
3 3 3 3 3 3 3 3 12 12
6 6 12 12 12 12 6 6 6 6
6 6 6 6 6 6 6 6 6 6
6 6 6 6 6 6 2 2 6 6
6 6 12 12 12 12 12 12 12 12
12 12 3 3 3 3 3 3 12 12
12 12 12 12 12 12 4 4 4 4
4 4 4 4 4 4 6 6 4 4
3 3 4 4 4 4 4 4 4 4
4 4 4 4 4 4 4 4 4 4
1 1 7 7 7 7 1 1 7 7
7 7 4 4 4 4 4 4 4 4
4 4 1 1 1 1 1 1 1 1
3 3 3 3 3 7 7 1 1 6
6 3 3 14 14 6 6 1 1 1
1 7 7 7 7 3 3 3 3 44
44 44 44 44 44 44 44 44 44 1
1 7 7 1 1 1 1 7 7 8
8 11 11 11 11 8 8 11 11 11
11 11 11 8 8 8 8 11 11 30
30 8 8 30 30 30 8 8 8 8
8 8 8 8 8 8 8 8 8 8
8 8 8 8 8 8 8 8 8 8
8 8 8 8 8 8 8 8 8 8
8 8 8 8 8 8 8 8 8 8
8 8 8 8 8 8 8 8 8 8
8 8 8 8 8 8 8 8 8 8
8 8 8 8 8 8 8 8 8 8
8 8 8 8 8 8 8 8 8 8
8 8 8 8 8 30 30 36 36 8
8 8 8 36 36 37 37 37 37 36
36 8 8 36 36 36 36 37 37 36
36 36 36 37 37 40 40 40 40 41
41 42 42 42 42 41 41 40 40 40
40 41 41 38 38 37 37 36 36 36
36 36 36 41 41 40 40 40 40 36
36 36 36 36 36 36 36 42 42 42
42 42 42 42 42 42 42 42 42 42
42 42 42 42 42 42 42 42 42 3
3 3 3 3 3 37 37 37 37 36
36 42 42 37 37 37 37 37 37 41
41 40 40 40 40 3 3 3 3 40
40 40 40 42 42 41 41 41 41 41
41 41 41 41 41 41 41 41 41 41
41 41 41 41 41 41 41 3 3 3
40 40 40 40 3 3 3 3 3 25
25 22 22 22 22 1 1 1 1 1
1 12 12 12 12 6 6 6 6 6
6 4 4 22 22 3 3 3 3 3
3 12 12 12 12 6 6 12 12 12
12 12 12 12 12 12 12 12 12 3
3 3 3 3 3 3 3 3 3 3
3 3 3 3 3 3 3 3 3 4
4 6 6 6 6 6 6 6 6 6
6 6 6 7 7 12 12 12 12 7
7 7 7 12 12 12 12 4 4 4
4 4 4 1 1 1 1 1 1 1
1 7 7 7 7 7 7 3 3 3
3 3 3 3 3 3 3 3 3 7
7 1 1 1 1 1 1 1 1 3
3 3 3 3 3 3 3 7 7 3
3 3 3 1 1 1 1 7 7 3
3 3 3 3 3 45 45 3 3 3
3 3 3 7 7 7 7 44 44 44
44 2 2 44 44 2 2 44 44 2
2 2 2 2 2 2 2 2 2 44
44 2 2 44 44 2 2 30 30 2
2 2 2 30 30 2 2 44 44 2
2 2 2 3 3 12 12 5 5 6
6 5 5 4 4 3 3 2 2 30
30 30 30 30 30 30 30 30 30 2
2 2 2 3 3 3 3 3 3 3
3 3 3 3 3 3 3 30 30 3
3 3 3 3 3 3 3 3 3 3
3 3 3 3 3 3 3 44 44 46
46 45 45 45 45 45 45 45 45 3
3 3 3 3 45 45 45 45 45 45
45 45 45 45 45 45 45 45 45 45
46 46 46 46 46 46 46 46 46 46
46 46 46 46 46 46 46 46 46 46
46 46 46 46 46 46 45 45 45 45
47 47 47 47 47 47 47 47 47 47
47 47 47 47 45 45 45 45 45 45
46 46 42 42 41 41 40 40 40 40
42 42 40 40 40 40 42 42 42 42
40 40 41 41 40 40 40 40 40 40
40 40 42 42 40 40 42 42 40 40
40 40 40 40 41 41 42 42 42 42
41 41 40 40 42 42 42 42 40 40
40 40 41 41 3 3 3 3 40 40
42 42 40 40 40 40 3 3 3 3
42 42 42 42 41 41 41 41 41 41
41 41 41 41 42 42 41 41 41 41
40 40 41 41 25 25 25 25 21 21
25 25 41 41 41 41 25 25 25 25
25 25 25 25 25 25 25 25 21 21
25 25 25 21 21 18 18 21 21 25
25 21 21 20 20 20 20 20 20 18
18 20 20 25 25 18 18 21 21 20
20 20 20 25 25 25 25 25 25 25
20 20 3 3 20 20 25 25 20 20
18 18 25 25 20 20 3 3 3 3
3 3 25 25 21 21 25 25 25 25
25 25 25 25 20 20 20 20 25 25
18 18 18 18 21 21 20 20 21 21
25 25 25 25 20 20 25 25 25 25
18 18 20 20 25 25 25 25 20 20
25 25 25 25 25 25 25 25 25 25
25 25 25 25 25 25 25 25 25 25
25 25 25 25 25 25 25 25 25 25
25 25 25 25 25 25 25 25 25 25
25 25 25 25 25 25 25 25 25 25
25 25 25 25 25 25 25 25 25 25
25 25 25 25 25 25 25 25 25 25
25 25 25 18 18 21 21 21 21 20
20 25 25 25 25 21 21 25 25 18
18 25 25 18 18 25 25 21 21 18
18 25 25 18 18 18 18 3 3 30
30 30 30 30 30 30 30 30 30 30
30 30 30 30 30 30 30 30 30 30
30 30 30 30 30 30 30 30 30 30
30 30 30 30 30 30 30 30 30 30
30 30 30 30 30 30 30 30 30 30
30 30 30 30 30 30 30 30 30 30
30 30 30 30 30 30 30 30 30 30
30 30 30 30 30 30 30 30 30 3
3 3 3 3 3 20 20 21 21 18
18 21 21 21 21 21 21 3 3 3
3 3 3 3 3 3 3 3 3 3
3 3 3 3 3 3 3 3 3 3
38 3 3 3 3 3 3 3 3 3
3 3 3 3 3 3 3 3 3 3
3 3 3 3 3 3 3 38 3 3
3 3 3 3 3 3 3 3 3 3
3 3 3 3 3 3 3 3 3 3
3 3 3 3 3 3 3 3 3 3
3 3 3 3 2 2 3 3 3 3
3 3 3 3 3 3 3 3 3 3
3 3 3 3 3 3 3 3 3 3
3 3 3 3 3 3 3 3 3 3
3 3 3 3 3 3 3 3 3 3
3 3 3 3 3 3 3 3 3 3
3 3 3 3 3 3 3 3 3 3
3 3 3 3 3 3 3 3 3 3
3 3 3 3 48 48 3 3 3 3
3 3 3 3 3 3 3 3 3 3
3 3 3 3 3 3 3 3 3 3
3 3 3 3 3 35 35 3 3 3
3 3 3 3 3 3 3 3 3 3
3 3 32 32 3 3 3 3 3 3
3 3 3 6 6 7 7 3 3 3
3 7 7 3 3 3 3 1 1 44
44 44 44 3 3 44 44 44 44 46
46 1 1 46 46 46 46 44 44 3
3 3 3 3 3 3 3 3 3 2
2 3 3 7 7 7 7 44 44 46
46 46 46 46 46 45 45 45 45 45
45 2 2 2 2 2 2 2 2 45
45 44 44 44 44 3 3 12 12 4
4 4 4 4 4 3 3 30 30 30
30 2 2 30 30 47 47 47 47 2
2 44 44 47 47 3 3 3 3 47
47 47 47 3 3 47 47 44 44 44
44 42 42 41 41 45 45 45 45 47
47 47 47 3 3 46 46 47 47 42
42 41 41 46 46 41 41 41 41 3
3 3 3 3 3 3 3 3 3 3
3 5 5 5 5 40 40 42 42 41
41 42 42 25 25 25 25 25 25 21
21 40 40 42 42 41 41 41 41 31
31 3 3 42 42 40 40 18 18 41
41 41 41 42 42 21 21 40 40 42
42 42 42 42 42 20 20 25 25 25
25 25 25 20 20 25 25 25 25 20
20 25 25 21 21 20 20 25 25 25
25 25 25 25 25 25 25 25 25 25
25 25 25 25 25 25 25 25 25 25
25 25 25 25 25 25 25 25 25 25
25 25 25 25 25 25 25 25 25 25
25 25 25 25 25 25 25 25 25 25
25 25 25 25 25 25 25 25 25 25
25 25 25 25 25 25 25 25 25 25
25 25 25 25 20 20 25 25 21 21
18 18 18 18 18 18 18 18 18 18
18 18 18 18 18 18 25 25 3 3
3 3 3 3 3 3 3 3 3 3
3 3 3 3 3 3 3 3 3 3
3 3 3 3 3 3 3 3 3 3
3 3 3 3 3 3 3 3 3 3
3 3 3 3 38 38 18 18 20 20
25 25 21 21 3 3 3 3 3 3
3 3 3 3 3 3 25 25 3 3
3 3 3 21 21 25 25 21 21 38
38 3 3 3 3 3 3 3 3 3
3 3 3 3 3 3 3 3 3 3
3 3 3 3 3 3 3 3 3 3
3 3 3 3 3 3 3 3 3 3
3 3 3 3 3 3 3 3 3 3
3 3 3 3 3 3 3 3 3 3
3 3 3 3 3 3 3 3 3 3
3 3 3 3 3 3 3 3 3 3
3 3 3 3 3 3 3 3 3 3
3 3 3 3 3 3 3 3 3 3
3 3 3 3 3 3 3 3 3 3
3 3 3 3 3 3 3 3 3 3
3 3 3 3 3 3 3 3 3 3
3 3 3 3 3 3 3 3 3 3
3 3 3 11 11 11 11 32 32 3
3 3 3 3 3 3 3 3 3 3
3 3 3 3 3 3 3 3 3 3
3 3 3 3 3 3 3 3 3 3
3 3 3 3 3 3 3 3 3 3
3 3 3 3 3 3 3 3 3 3
3 3 3 3 3 3 3 3 3 3
3 3 3 3 3 3 3 3 3 3
3 3 3 3 3 3 3 3 3 3
3 3 3 3 3 3 3 3 3 3
3 3 3 3 3 3 3 3 3 3
3 3 3 3 3 3 3 3 3 3
3 3 3 3 3 3 3 3 3 3
3 3 3 3 3 3 3 3 3 3
3 3 3 3 3 3 3 3 3 3
3 3 3 3 3 3 3 3 23 23
12 12 3 3 3 3 3 3 3 3
3 3 6 6 6 6 6 6 3 3
12 12 6 6 3 3 3 3 3 3
3 3 3 3 3 3 3 3 3 3
3 3 3 3 3 3 3 3 3 3
3 3 3 3 3 3 3 3 3 3
3 3 3 3 3 3 3 3 3 3
3 3 3 3 3 3 3 3 3 3
3 3 3 3 3 3 3 3 3 3
3 3 3 3 3 3 3 3 3 3
3 3 3 3 3 3 3 3 3 3
3 3 3 3 3 3 3 3 3 3
3 3 3 3 3 3 3 3 3 3
3 3 3 3 3 3 3 3 3 3
3 3 3 3 3 3 3 3 3 3
3 3 3 3 3 3 3 3 3 3
3 3 3 3 3 3 3 3 3 3
3 3 3 3 3 3 3 3 3 3
3 3 3 3 3 3 3 3 3 3
3 3 3 3 3 3 3 3 3 3
3 3 3 3 3 3 3 3 3 3
3 3 3 3 3 3 3 3 3 3
3 3 3 3 3 3 3 3 3 3
3 3 3 3 3 3 3 3 3 3
3 3 3 3 3 3 3 3 3 3
3 3 3 3 3 3 3 3 3 3
3 3 3 3 3 3 3 3 3 3
3 3 3 3 3 3 3 3 3 3
3 37 37 3 3 3 3 3 3 3
3 3 3 3 3 3 3 3 3 3
3 3 3 3 3 3 3 3 3 3
3 3 3 3 3 3 3 3 3 3
3 3 3 3 3 3 3 3 3 3
3 3 3 3 3 3 3 3 3 3
3 3 3 3 3 3 3 3 3 3
3 3 3 3 3 3 3 3 3 3
3 3 3 3 3 3 3 3 3 3
3 3 3 3 3 3 3 3 3 3
3 3 3 3 3 3 3 3 3 3
3 3 3 3 3 3 3 3 3 3
3 3 3 3 3 3 3 3 3 3
3 3 3 3 3 3 3 3 3 3
3 3 3 3 3 3 3 11 11 11
11 3 3 3 3 3 3 3 3 11
11 11 11 11 11 11 11 3 3 3
3 3 3 3 3 3 3 3 3 3
3 3 3 3 3 3 3 3 3 3
3 3 3 3 3 3 3 3 3 3
3 3 3 3 3 3 3 3 3 3
3 3 3 3 3 3 3 3 3 3
3 3 3 3 3 3 3 3 3 3
3 3 3 3 3 3 3 3 3 3
3 3 3 3 3 3 3 3 3 3
3 3 3 3 3 3 3 3 3 3
3 3 3 3 3 3 3 3 3 3
3 3 3 3 3 3 3 3 3 3
3 3 3 3 3 3 3 3 3 3
3 3 3 3 3 3 3 3 3 3
3 3 3 3 3 3 3 3 3 3
3 3 3 3 3 3 3 3 3 3
3 3 3 3 3 3 3 3 3 3
3 3 3 3 3 3 3 3 3 3
3 3 3 3 3 3 3 3 3 3
3 3 3 3 3 3 3 3 3 3
3 3 3 3 3 3 3 3 3 3
3 3 3 3 3 3 3 3 3 3
3 3 3 3 3 3 3 3 3 3
3 3 3 3 3 3 3 3 3 3
3 3 3 3 3 3 3 3 3 3
3 3 3 3 3 3 3 3 3 3
3 3 3 3 3 3 3 3 3 3
3 3 3 3 3 3 3 3 3 4
4 3 3 3 3 3 3 3 3 3
3 3 3 3 3 3 3 3 3 3
3 3 3 3 3 3 3 3 3 3
3 3 3 3 3 3 3 3 3 3
3 3 3 3 3 3 3 3 3 3
3 3 3 3 3 3 3 3 3 3
3 3 3 3 3 3 3 3 3 3
3 3 3 3 3 3 3 3 3 3
3 3 3 3 3 3 3 3 3 3
3 3 3 3 3 3 3 3 3 3
3 3 3 3 3 3 3 3 3 3
3 3 3 3 3 3 3 3 3 3
3 3 35 35 35 35 35 35 35 35
35 35 35 35 35 35 35 35 35 35
35 35 35 35 35 35 35 35 35 35
35 35 35 35 35 35 35 35 35 35
35 35 35 35 35 35 35 35 35 35
35 35 35 35 35 35 35 35 35 35
35 35 35 35 35 35 35 35 35 35
35 35 35 35 35 3 3 3 3 3
3 3 3 3 3 3 3 3 47 47
47 47 47 47 47 47 47 47 47 47
46 46 3 3 3 3 3 3 3 3
3 3 3 3 3 3 3 3 3 3
3 3 3 3 3 3 3 3 3 3
3 3 3 3 3 3 3 3 3 3
3 3 3 3 3 3 3 3 3 3
3 3 3 3 3 3 3 3 3 3
3 3 3 3 3 3 3 3 3 3
3 3 3 3 3 41 41 25 25 25
25 3 3 3 3 3 3 3 3 3
3 3 3 3 3 3 3 3 3 3
3 3 3 3 3 3 3 49 49 3
3 3 3 3 3 3 3 3 3 3
3 3 3 3 50 50 50 50 3 3
3 3 3 3 3 3 3 3 3 3
3 3 3 3 3 3 3 3 3 3
3 3 3 3 3 3 3 3 3 3
3 3 3 3 3 3 3 3 3 3
3 3 3 3 3 3 3 3 3 3
3 3 3 3 3 3 3 3 3 3
3 3 3 3 3 3 3 3 3 3
3 3 3 3 3 3 3 3 3 3
3 3 3 3 3 3 3 3 3 3
3 3 3 3 3 3 3 3 3 3
3 3 3 3 3 3 3 3 3 3
3 3 3 3 3 3 3 3 3 3
3 3 3 3 3 3 3 3 3 3
3 3 3 3 3 3 3 3 3 3
3 3 3 3 3 3 3 3 3 3
3 3 3 3 3 3 3 3 3 3
3 3 3 3 3 3 3 3 3 3
3 3 3 3 3 3 3 3 3 3
3 3 3 3 3 3 3 3 3 3
3 3 3 3 3 3 3 3 3 3
3 3 3 3 3 3 3 3 3 3
3 3 3 3 3 3 3 3 3 3
3 3 3 3 3 3 3 3 3 3
3 3 3 3 3 3 3 3 3 3
3 3 3 3 3 3 3 3 3 3
3 3 3 3 3 3 3 3 3 3
3 3 3 3 3 3 3 3 3 3
3 3 3 3 3 3 3 3 3 3
3 3 3 3 3 3 3 3 3 3
3 3 3 3 3 3 3 3 3 3
3 3 3 3 3 3 3 3 3 3
3 3 3 3 3 3 3 3 3 3
3 3 3 3 3 3 3 3 3 3
3 3 3 3 3 3 3 3 3 3
3 3 3 3 3 3 3 3 3 3
3 3 3 3 3 3 3 3 3 3
3 3 3 3 3 3 3 3 3 3
3 3 3 3 3 3 3 3 3 3
3 3 3 3 3 3 3 3 3 3
3 3 3 3 3 3 3 3 3 3
3 3 3 3 3 3 3 3 3 3
3 3 3 3 3 3 3 3 3 3
3 3 3 3 5 5 5 5 5 5
5 5 5 5 5 5 5 5 5 5
5 5 5 5 5 5 5 5 5 5
5 5 5 5 5 5 5 5 5 5
5 5 5 5 5 5 5 5 5 5
5 5 5 5 5 5 5 5 5 5
5 5 5 5 5 5 5 5 5 5
5 5 5 5 38 38 6 6 6 6
6 6 6 6 49 49 49 49 35 35
3 3 14 14 5 5 4 4 3 3
6 6 6 6 6 6 3 3 4 4
6 6 6 6 6 6 10 10 3 3
5 5 48 48 13 13 13 13 1 1
1 1 3 3 3 3 12 12 12 12
1 1 1 1 1 1 3 3 3 3
3 3 3 3 3 3 3 3 1 1
1 1 3 3 6 6 6 6 6 6
6 6 13 13 3 3 5 5 6 6
13 13 3 3 3 3 3 3 3 3
3 3 10 10 5 5 5 5 4 4
5 5 32 32 48 48 5 5 13 13
6 6 3 3 3 3 38 38 3 3
6 6 3 3 6 6 6 6 6 6
3 3 3 3 3 1 1 14 14 3
3 4 4 13 13 12 12 3 3 3
3 14 14 3 3 7 7 3 3 4
4 12 12 3 3 3 3 3 3 3