/*--------------------------------*- C++ -*----------------------------------*\
  =========                 |
  \\      /  F ield         | OpenFOAM: The Open Source CFD Toolbox
   \\    /   O peration     | Website:  https://openfoam.org
    \\  /    A nd           | Version:  dev
     \\/     M anipulation  |
\*---------------------------------------------------------------------------*/
FoamFile
{
    format      ascii;
    class       volScalarField;
    location    "0";
    object      yPlus;
}
// * * * * * * * * * * * * * * * * * * * * * * * * * * * * * * * * * * * * * //

dimensions      [0 0 0 0 0 0 0];

internalField   uniform 0;

boundaryField
{
    inlet
    {
        type            calculated;
        value           uniform 0;
    }
    outlet
    {
        type            calculated;
        value           uniform 0;
    }
    ground
    {
        type            calculated;
        value           nonuniform List<scalar> 
15905
(
36649.7
36649.7
36649.7
36649.6
36649.5
36649.3
36649
36648.5
36647.6
36645.9
36643.7
36640.7
36637
36632.7
36628.8
36626
36624.9
36625.7
36628.4
36632.1
36636.4
36640.3
36643.5
36645.8
36647.5
36648.3
36649
36649.3
36649.5
36649.6
36649.7
36649.7
36649.7
36649.7
36649.7
36649.7
36649.7
36649.6
36649.5
36649.4
36649.1
36648.5
36647.5
36645.7
36642.6
36637.9
36631.9
36624.8
36618
36612.9
36611
36612.6
36617.1
36623.5
36630.7
36637.1
36642
36645.2
36647.3
36648.4
36649
36649.4
36649.5
36649.7
36649.7
36649.7
36649.7
36649.7
36649.7
36649.7
36649.6
36649.6
36649.6
36649.5
36649.2
36648.7
36647.4
36645
36640.3
36632.5
36621.4
36607.6
36594.3
36584.3
36580.4
36583.3
36592.4
36605.8
36619.6
36631.1
36639.4
36644.4
36647.2
36648.5
36649.2
36649.5
36649.6
36649.7
36649.7
36649.7
36649.7
36649.7
36649.7
36649.6
36649.6
36649.6
18324.8
18324.8
18324.7
18324.5
18323.9
18322.7
18319.8
18314.4
18305.7
18293.8
18281.1
18270.8
18265.6
18266.8
18274.2
18285.6
18298.4
18309.3
18316.7
18320.9
18323.2
18324.2
18324.6
18324.8
18324.8
18324.9
36649.7
36649.7
36649.7
36649.7
36649.6
36649.6
36649.5
36649.6
18324.8
9162.4
9162.11
9162.26
9161.98
9161.23
9159.4
9155.51
9148.51
9138.1
9126.55
9116.76
9111.68
9112.07
9117.53
9127.63
9139.41
9149.47
9155.97
9159.61
9161.35
9162.03
9162.3
9162.39
9162.42
9162.43
36649.7
36649.7
36649.7
36649.7
36649.5
36649.5
36649.4
36649.4
18324.7
9162.36
9162.29
9162.12
9161.67
9160.32
9156.69
9147.9
9130.32
9102.26
9069.46
9044.38
9033.73
9033.16
9045.43
9071.99
9105.5
9132.44
9148.91
9157.07
9160.45
9161.75
9162.22
9162.35
9162.4
9162.42
36649.7
36649.7
36649.7
36649.7
36649.4
36649.3
36649.2
36649
18324.5
9162.23
9162.04
9161.67
9160.8
9158.53
9150.8
9130.15
9082.23
8994.59
8884.68
8809.27
8800.29
8792.73
8808.28
8890.94
9005.55
9088.68
9132.35
9151.4
9158.77
9161.27
9162
9162.24
9162.34
9162.39
36649.6
36649.6
36649.7
36649.7
36649.2
36649.1
36648.8
36648.3
18324
9161.89
9161.34
9160.25
9158.98
4577.98
4571.01
4549.23
4488.55
4341.35
4099.82
3857.97
3971.19
3892.6
3878.71
4073.05
4342.74
4486.44
4546.65
4569.57
4577.66
4580.14
9161.3
9161.85
9162.18
9162.31
36649.4
36649.5
36649.6
36649.6
36649
36648.8
36648.2
36647.1
18323.2
9161.19
9159.55
9155.84
9149.54
4570.3
4547.03
4475.89
4252.41
3810.62
3566.46
4228.9
4461.46
4540.5
4568.52
4577.53
9158.35
9160.73
9161.77
9162.16
36649.1
36649.3
36649.5
36649.6
36648.8
36648.4
36647.5
36645.7
18321.8
9159.99
9155.97
9144.58
9117.76
4534.59
4429.5
4064.51
2228.14
1640.31
3954.32
4393.9
4524.45
4565.83
9150.28
9158.17
9160.99
9161.9
36648.7
36649.2
36649.4
36649.5
36648.7
36648.1
36646.9
36644
18320.4
9158.47
9150.73
9125.02
9039.31
4398.03
3770.22
3577.33
4332.04
4530.67
9134.57
9154.15
9159.96
9161.6
36648.4
36649.1
36649.4
36649.5
36648.6
36648
36646.7
36643.5
18319.3
9157.57
9146.26
9104.58
8922.13
3916.28
3703.26
4470.7
9117.28
9150.63
9159.15
9161.37
36648.2
36649
36649.4
36649.5
36648.7
36648.1
36646.8
36643.9
18319.3
9157.47
9145.89
9102.66
8907.52
3684.49
2116.77
4462.69
9116.55
9150.48
9159.11
9161.37
36648.3
36649
36649.4
36649.5
36648.8
36648.3
36647.3
36645.1
18320.6
9158.24
9150.15
9121.2
9021.14
4301.48
3447.18
3579.6
4243.98
4519.8
9132.84
9153.54
9159.88
9161.57
36648.6
36649.1
36649.4
36649.5
36648.9
36648.6
36647.9
36646.6
18321.9
9159.74
9155.19
9142.04
9110.98
4517.91
4412.49
4262.32
4059.74
3923.53
3718.47
3875.05
3614.36
3639.9
3842.5
3761.33
3929.76
4049.78
4254.67
4387.5
4509.06
4561.36
9149.19
9157.85
9160.9
9161.87
36649
36649.3
36649.5
36649.6
36649.1
36648.9
36648.3
36648.1
18323.2
9161.02
9159.11
9154.51
9147.77
4567.87
4550.11
4523.47
4494.12
4471.66
4458.19
4448.33
4441.2
4443.22
4446.38
4451.89
4466.84
4490.64
4520.16
4546.73
4566.84
4576.46
9158.2
9160.56
9161.71
9162.13
36649.3
36649.5
36649.6
36649.6
36649.3
36649.2
36648.7
36649
18324
9161.81
9161.17
9160.02
9158.71
4578.86
4576.05
4571.34
4566.07
4561.34
4557.94
4555.33
4553.75
4553.65
4554.66
4556.79
4560.45
4565.26
4570.85
4575.53
4578.81
4580.33
9161.34
9161.82
9162.15
9162.3
36649.5
36649.6
36649.6
36649.7
36649.4
36649.4
36649.3
36649.2
18324.5
9162.19
9162.01
9161.51
9161.72
4580.88
4580.52
4579.87
4579.06
4578.29
4577.77
4577.18
4576.89
4576.87
4577.07
4577.53
4578.15
4578.98
4579.8
4580.46
4580.9
4581.11
9162.2
9162.26
9162.35
9162.39
36649.7
36649.7
36649.7
36649.7
36649.5
36649.5
36649.5
36649.5
18324.8
9162.36
9162.32
9162.27
9162.31
4581.18
4581.14
4581.07
4580.98
4580.89
4580.8
4580.74
4580.7
4580.69
4580.72
4580.79
4580.86
4580.97
4581.06
4581.14
4581.19
4581.21
9162.39
9162.4
9162.41
9162.42
36649.7
36649.7
36649.7
36649.7
36649.7
36649.7
36649.7
36649.7
18324.8
9162.42
9162.41
9162.41
9162.42
4581.21
4581.21
4581.21
4581.2
4581.19
4581.18
4581.17
4581.17
4581.17
4581.17
4581.18
4581.19
4581.2
4581.21
4581.21
4581.22
4581.22
9162.43
9162.43
9162.43
9162.43
36649.7
36649.7
36649.7
36649.7
36649.7
36649.7
36649.7
36649.7
18324.9
9162.43
9162.43
9162.43
9162.43
9162.43
9162.43
9162.43
9162.43
9162.43
9162.43
9162.43
9162.43
9162.43
9162.43
9162.43
9162.43
9162.43
9162.43
9162.44
9162.45
9162.45
9162.44
9162.44
9162.44
9162.44
36649.7
36649.7
36649.7
36649.7
36649.7
36649.7
36649.7
36649.7
18324.9
9162.43
9162.43
9162.44
9162.45
9162.45
9162.45
9162.45
9162.45
9162.44
9162.43
9162.43
9162.43
9162.43
9162.43
9162.43
9162.44
9162.45
9162.45
9162.45
9162.45
9162.45
9162.45
9162.45
9162.45
9162.45
36649.7
36649.7
36649.7
36649.7
36649.7
36649.7
36649.7
36649.7
18324.9
9162.45
9162.45
9162.45
9162.45
9162.45
9162.45
9162.45
9162.45
9162.45
9162.45
9162.45
9162.45
9162.45
9162.45
9162.45
9162.45
9162.45
9162.45
9162.45
9162.45
9162.45
9162.45
9162.45
9162.45
9162.45
36649.7
36649.7
36649.7
36649.7
36649.7
36649.7
36649.7
36649.7
18324.9
9162.45
9162.45
9162.45
9162.45
9162.45
9162.45
9162.45
9162.45
9162.45
9162.45
9162.45
9162.45
9162.45
9162.45
9162.45
9162.45
9162.45
9162.45
9162.45
9162.45
9162.45
9162.45
9162.45
9162.45
9162.45
36649.7
36649.7
36649.7
36649.7
36649.7
36649.7
36649.7
36649.7
18324.9
9162.45
9162.45
9162.45
9162.45
9162.45
9162.45
9162.45
9162.45
9162.45
9162.45
9162.45
9162.45
9162.45
9162.45
9162.45
9162.45
9162.45
9162.45
9162.45
9162.45
9162.45
9162.45
9162.45
9162.45
9162.45
36649.7
36649.7
36649.7
36649.7
36649.7
36649.7
36649.7
36649.7
18324.9
18324.9
18324.9
18324.9
18324.9
18324.9
18324.9
18324.9
18324.9
18324.9
18324.9
18324.9
18324.9
18324.9
18324.9
18324.9
18324.9
18324.9
18324.9
18324.9
18324.9
18324.9
18324.9
18324.9
18324.9
18324.9
36649.7
36649.7
36649.7
36649.7
36649.7
36649.7
36649.7
36649.7
36649.7
36649.7
36649.7
36649.7
36649.7
36649.7
36649.7
36649.7
36649.7
36649.7
36649.7
36649.7
36649.7
36649.7
36649.7
36649.7
36649.7
36649.7
36649.7
36649.7
36649.7
36649.7
36649.7
36649.7
36649.7
36649.7
36649.7
36649.7
36649.7
36649.7
36649.7
36649.7
36649.7
36649.7
36649.7
36649.7
36649.7
36649.7
36649.7
36649.7
36649.7
36649.7
36649.7
36649.7
36649.7
36649.7
36649.7
36649.7
36649.7
36649.7
36649.7
36649.7
36649.7
36649.7
36649.7
36649.7
36649.7
36649.7
36649.7
36649.7
36649.7
36649.7
36649.7
36649.7
36649.7
36649.7
36649.7
36649.7
36649.7
36649.7
36649.7
36649.7
36649.7
36649.7
36649.7
36649.7
36649.7
36649.7
36649.7
36649.7
36649.7
36649.7
36649.7
36649.7
36649.7
36649.7
36649.7
36649.7
36649.7
36649.7
36649.7
36649.7
36649.7
36649.7
36649.7
36649.7
36649.7
36649.7
36649.7
36649.7
36649.7
36649.7
36649.7
36649.7
36649.7
36649.7
36649.7
36649.7
36649.7
36649.7
36649.7
36649.7
36649.7
36649.7
36649.7
36649.7
36649.7
36649.7
36649.7
36649.7
36649.7
36649.7
36649.7
36649.7
36649.7
36649.7
36649.7
36649.7
36649.7
36649.7
36649.7
36649.7
36649.7
36649.7
36649.7
36649.7
36649.7
36649.7
36649.7
36649.7
36649.7
36649.7
36649.7
36649.7
36649.7
36649.7
36649.7
36649.7
36649.7
36649.7
36649.7
36649.7
36649.7
36649.7
36649.7
36649.7
36649.7
36649.7
36649.7
36649.7
36649.7
36649.7
36649.7
36649.7
36649.7
36649.7
36649.7
36649.7
36649.7
36649.7
36649.7
36649.7
36649.7
36649.7
36649.7
36649.7
36649.7
36649.7
36649.7
36649.7
36649.7
36649.7
36649.7
36649.7
36649.7
36649.7
36649.7
36649.7
36649.7
36649.7
36649.7
36649.7
36649.7
36649.7
36649.7
36649.7
36649.7
36649.7
36649.7
36649.7
4129.28
3618.09
3895.47
3980.54
3881.19
3868.27
4030.49
4315.46
3669.52
3621.12
4266.6
3658.37
4177.14
2278.12
4062.81
3831.66
4364.64
3604.96
3484.56
4280.12
4049.86
3940.7
3671.05
4439.42
4423.31
1956.77
3673.1
4244.24
3968.44
2206.39
4071.1
3982.13
4200.09
4371.39
3946.76
4177.71
3684.8
3894.58
3320.55
3726.6
3684.45
3382.5
4100.77
3930.06
4021.32
3995.26
4138.92
3995.8
3520.87
3889.08
3809.61
3503.58
3852.7
3774.58
4157.91
3889.36
3970.23
4314.81
4172.44
3865.19
4421.08
4430.68
3764.89
4411.35
4419.51
3677.78
4413.75
4411.06
3871.52
4417
4414.1
3763.77
4421.41
4417.39
3932.43
4438.61
4422.76
8800.33
8268.77
8170.39
8794.49
8239.68
8282.42
8799.51
8180.23
8221.68
8863.72
8346.06
8189.18
4366.73
3738.96
4310.38
3852.7
3108.84
3673.86
3994.81
1524
2209.49
3914.39
3828.5
2037.43
3899.18
3291.1
3736.52
4473.95
4253.21
3698.05
4298.13
3749.81
4163.78
2117.89
1963.76
3857.78
4036.33
4444.4
3991.24
3994.86
4144.67
3940.83
3705.23
4514.92
4334.71
3748.27
3902.81
3995.89
3803
4262.51
2116.85
3951.94
3821.64
4519.93
4448.81
3661.71
4072.5
3895.92
8894.07
3707.92
4031.91
4131.4
4064.93
3873.52
4312.06
8990.08
4305.89
3909.23
4428.25
4496.23
4171.78
3492.49
4392.88
4504.92
3888.47
3536.06
1485.05
2240.8
1541.02
3616.16
3883.19
4164.61
4479.26
4338.11
4094.54
4478.09
4509.86
3911.65
4448.86
4473.57
3703.21
4432.28
4446.61
4021.25
4465.18
4441.33
4241.1
4501.56
4469.51
4113.31
3785.51
3567.01
3969.06
2212.34
3475.75
4064.27
2126.88
3194.3
3897.36
686.665
2406.49
1857.29
647.705
1853.24
1523.4
3999.65
3419.61
3104.74
3893.92
639.764
1345.62
903.1
3483.18
3277.77
1447.21
3156.41
3364.98
3676.9
2020.83
3826.38
3952.25
4145.31
3803.71
3771.06
2027.46
1627.25
4101.74
3572.78
2223.92
2084.61
3561.8
2069.5
3817.3
2124.13
3744.58
3460.68
4114.3
4020.46
3584.2
4343.33
4280.23
2212.37
2039.6
3651.13
3859.59
4119.2
2173.01
4235.02
4051.25
4086.03
2235.37
3737.95
4282.14
1935.41
1587.91
3737.45
3418.41
3545.13
3738.56
2005.55
1476.04
3534.48
4095.22
3664.84
3670.48
3744.55
1455.46
3382.04
2079.5
3794.71
3667.35
3792.76
3605.37
3520.32
4201.64
4178.82
3965.55
3954.54
4230.93
4230.64
3636.15
3593.65
3645.34
3557.98
1131.84
3700.73
1115.5
3812.44
1534.95
3679.13
4130.44
4120.82
3438.16
4082.95
4031.45
3835.9
3654.32
1515.2
8821.46
8225.72
8437.7
4025
3629.51
3671.41
3701.92
4106.6
3630.07
3864.11
4427.83
4133.02
8949.71
4089.82
4194.3
3741.96
4161.07
3811.91
4034.7
1581.33
1928.41
1931.82
1573.99
3567.44
4132.25
3907.83
3790.34
4221.11
4219.96
3905.33
4206.14
4218.21
3797.06
4205.17
4186.03
3963.69
4215.42
4202.87
3835.26
4213.44
4213.46
4369.34
4534.57
4505.9
1913.82
4229.16
2233.53
4095.92
3871.75
4041.39
4012.74
3581.8
3996.65
2078.02
1777.59
3504.59
3184.86
3916.64
1888.84
1701.02
4213.87
3788.13
4054.65
1442.76
3455.78
3828.79
4130.29
3770.89
3825.98
3959.57
4354.57
4264.17
3845.8
3510.55
2235.38
4246.45
3727.46
4078.71
1867.8
1803.03
4205.62
2014.21
4084.02
2162.39
4028.39
4126.86
2249.39
4102.58
1984.14
1998.51
3605.41
3725.02
2028.18
3867.93
2215.14
4055.77
3694.84
3685.84
4121.9
3644.88
3247.47
3238.87
4187.35
2113.95
2029.01
3768.84
2175.04
4152.89
3953.27
1137.03
1911.76
1847.62
1914.71
3963.96
4166.52
2207.94
2167.79
1900.39
1973.06
4063.36
3527.52
3422.7
3549.61
3752.44
2972.44
3579.45
2087.94
4080.24
3988.29
3782.69
3758.99
3814.71
4224.91
4222.03
4223.43
3834.84
4190.22
4203.48
3926.73
4205.31
4213.39
3909.36
4213.58
4216.87
3969.59
4207.41
4212.15
3841.55
3409.84
3306.4
3380.71
1516.91
4023.53
4036.92
4203.01
4151.21
1870.98
2201.91
4162.69
3903.73
4111.28
4165.4
2217.64
3746.7
4167.67
3915.51
4168.2
1892.02
2111.3
4169.56
1727.81
3690.2
4027.82
3502.22
3787.9
3950.88
3646.07
4073.26
2013.11
3968.34
1778.28
3894.65
3660.82
4042.05
4218.77
3841.55
3840.12
1907.84
3840.8
2164.21
4133.95
3571.19
3849.42
4267.15
4265.7
3984.11
3833.87
3744.42
2272.38
1718.56
2176.04
4250.34
4095.34
2234.65
1703.69
2092.06
4097.76
2116.58
1736.42
3774.94
4002.93
3838.05
1170.98
1548.84
1467.8
1485.07
4056.34
2215.59
4014.99
3801.07
3581.57
3783.62
4057.48
2150.9
3759.79
2173.48
3961
2075.78
3956.75
3842.34
1754.75
2216.86
4207.09
4225.69
3597.3
3961.72
3921.84
1595.96
1981.36
1620.13
1896.41
1071.5
3947.14
4058.37
4072.84
3983.18
1232.68
3547.61
3454.89
3308.92
2085.38
1887.8
2208.15
1973.98
3827.74
2097.38
1502.03
3332.01
3717.79
3564.99
2221.1
1480.85
3753.93
3682.84
3950.86
3875.68
3585.6
3820.69
2103.67
2151.64
2125.65
1955.89
3787.96
1713.99
2079.39
2244.94
1821.8
3627.94
3831.19
1667.23
1281.23
1897.52
4279.04
4365.01
2008.91
3775.73
3859.34
3919.58
2037.21
2025.7
2089.97
2182.99
3877.96
3917.9
2039.55
4356.27
2061.74
1771.9
2247.08
3995.47
1133.31
944.001
3623.76
2135.87
1304.83
2107.73
2125.13
2028.93
4219.84
2250.46
3880.33
3862.46
1752.55
4339.45
2225.81
2061.05
3850.67
3967.51
1532.63
2240.49
1915.72
1499.28
3815.32
3968.02
2232.64
1402.23
3922.14
1187.83
3317.66
3679.78
3323.9
3336.4
1610.63
3392.85
3433.12
3387.48
4008.43
3761.53
3808.73
1173.98
2211.65
1148.65
1066.62
3827.78
3161.65
2226.44
2214.59
3333.04
3199.08
3622.27
670.089
917.735
973.799
732.825
1766.59
1257.93
682.815
1935.38
3470.73
3422.78
3326.65
2234.05
2204.28
4209.82
2307.1
1829.22
1065.39
2211.72
1914.62
4160.31
2184.8
2222.39
1275.35
1211.38
3959.72
4009.39
1915.35
1206.38
2130.35
2224.18
4202.6
2210.06
2413.23
1857.7
2108.11
4174.36
2088.69
2211.12
3343.64
3364.86
3599.68
686.483
992.813
1985.63
1328.99
815.835
1562.15
714.128
778.077
3543.72
3008.67
3178.22
2215.8
1414.36
2206.83
2224.99
1229.01
1805.65
1305.6
1193.27
2249.38
1410.28
3668.57
3284.2
3785.32
4009.56
1973.91
3120.5
3796.09
3294.16
3286.84
3985.21
1801.39
2116.65
1524.6
3798.44
3442.55
3460.77
3495.07
2018.48
3953.43
3801.35
8911.46
8517.1
8770.41
8978.38
8728.62
8446.83
4187.14
3883.13
3617.23
4050.14
3643.31
3961.2
4041.5
2129.42
4117.92
3633.93
3821.07
4031.41
4534.49
4403.48
4082.05
4450.17
4043.92
4426.61
2061.66
2122.29
2200.85
1314.53
1329.67
4192.22
3799.41
3505.17
3788.21
4033.76
4126.72
3918.14
4098.64
3755.81
4228.09
4023.96
4211.89
4279.85
4514.24
4542.74
3918.64
4253.67
4264.91
3814.19
4227.56
4209.5
3739.67
3956.9
4224.92
2003.18
2130.73
3782.75
4012.03
4344
2093.02
2052.67
2226.98
2055.9
4007.68
3833.49
3504.64
4010.45
3655.87
4057.62
4269.85
3987.83
3839.99
1460.34
1760.1
3455.41
3965.05
4092.75
4002.5
3843.76
3903.13
2102.17
2252.75
2017.87
2142.37
2140.14
4276.13
3942.06
3745.97
3379.55
3234.76
3096.39
3091.58
3238.66
3466.48
3792.93
4122.66
4125.57
3280.29
3171.45
3457.67
3427.76
3713.57
4216.13
4253.18
4235.13
3855.76
3456.08
3351.15
3413.06
1346.88
1750.54
1868.92
2249.37
2245.88
2124.42
2219.99
2232.85
2196.78
3525.45
3593.74
4020.43
4118.32
4268.3
4001.07
2304.02
2068.79
2233.91
3858.08
3676.03
3574.75
2010.82
3766.09
3505.72
3546
3901.2
3660.56
4161.94
4248.79
4044.64
3599.72
3782.72
3843.62
4195.02
1149.73
4142.61
3597.01
3556.96
3750.42
3971.36
4338.61
3997.14
3491.37
3619.22
2224.75
1858.43
1803.84
4011.82
4315.22
4173.15
3971.63
4275.35
4327.68
3826.92
3840.26
4091.99
2042.08
1676.29
4073.74
4336.12
4278.73
3912.28
4337.5
2083.3
4099.4
4268.96
3926.52
2119.79
1461.38
2024.7
1828.53
2224.12
2125.15
2120.86
2103.81
1239.57
1820.24
3558.57
4000.51
3794
4223.89
4246.32
3861.72
4021.61
3839.07
3649.4
2110.49
2107.84
2227.22
3525.08
3703.23
3884.61
2242.85
2243.79
2247.65
775.347
2400.64
1388.52
1070.78
1548.81
1317.05
1936.32
2180.98
2197.58
1888.89
1846.84
1433.82
3444.05
3449.94
3451.44
668.189
1173.16
1283.91
1402.37
1391.1
1882.98
1487.78
1147.31
3477.1
3443.27
3432.41
2032.4
2201.27
2211.6
1121.56
1267.91
1675.59
3968.66
3713.46
3661.87
1813.23
1770.11
2079.32
2040.95
2072.56
2211.7
2237.72
2071.31
2044.03
4003.3
4354.69
4295.23
1681.3
1777.11
4244.54
3684.65
3493.53
1850.05
2200.39
3747.72
4038.24
2068.28
2029.69
1990.1
2040.84
2063.94
2215.02
2182.82
2106.86
3577.84
3507.52
3613.02
1794.1
1819.76
2225.01
2205.84
2210.31
2028.68
4271.04
3806.78
1730.68
1954.87
2012.84
3585.97
4137.28
3978.03
3632.56
3812.14
3995.14
2025.49
2197.56
2205.82
1905.77
1658.12
1334.68
3488.39
3667.02
4057.59
1072.65
1377.79
1848.52
1325.46
2063.85
2203.06
2218.8
2092.72
4034.67
3639.58
3512.41
799.383
715.594
2260.3
3828.88
4140.45
4124.16
3805.83
4075.22
3723.88
1797.38
2021.92
3467.37
3309.6
3507.11
1516.14
1008.5
1222.92
1252.51
888.931
1393.51
1417.07
1798.57
2050.45
3711.56
3541.28
3699.76
1977.61
1931.65
1282.71
3587.12
3542.88
3788.37
2149.47
2084.79
1757.33
1815.97
3750.07
3531.25
4017.41
1069.69
2006.01
1496.77
1224.12
1229.93
1507.23
2010.98
1067.34
1709.5
1544.68
2063.19
2229.69
2241.28
3766.37
3574.6
3550.4
3837
3662.23
3584.76
1978.34
2085.14
1878.59
2135.7
1678.17
1780.92
2010.11
3804.16
3664.63
4111.37
1376.38
978.114
1287.94
1278.57
1693.52
1522.51
1211.56
1051.36
2135.11
1796.26
1797.93
2147.82
2065.86
2040.29
2077.6
2141.16
3694.89
3507.49
3726.43
1693.33
2185.74
1865.19
1695.35
1310.43
1978.58
1901.68
2231.92
2232.4
1707.49
1771.89
2209.36
1951.91
1747.75
2146.59
2099.85
2222.52
1953.65
2116.6
2120
2159.96
2238.42
3819.07
3765.12
4172.68
1522.93
1337.22
2188.44
1991.59
2158.66
2227.44
2053.09
2064.76
1804.92
1221.34
2103.66
2242.63
2244.92
2217.83
2234.97
2103.08
2202.89
2199.07
2167.09
1529.27
1872.49
1590.96
2158.16
2159.36
1913.18
1927.22
2176.3
2193.09
2162.83
2166.5
1920.04
2192.14
2211.54
2220.81
2196.46
2203.03
2178.3
1858.85
2138.62
2150.76
2181.2
2142.38
1757.99
1894.59
1609.47
1103.2
2049.25
2232.94
2209
2220.56
2213.48
2184.86
2108.37
2233.36
2228.36
2034.67
1698.25
1739.1
1849.8
2127.84
1768.6
2235.21
2062.21
2147.31
2168.76
1845.33
2037.53
2222.63
2063.48
2037.88
1793.76
2121.14
3711.67
3486.36
1471.49
3523.12
3549.65
1731.72
1167.35
1683.82
1823.06
1639.88
1745.14
1881.66
1818.8
1533.61
1678.46
1542.83
2268.85
2151.56
2136.29
1991.14
1900.93
1705.1
2144.41
2235.75
2239.52
1639.57
2032.61
1856.54
1563.33
2100.62
1312.75
1649.21
1902.44
2196.43
1833.15
2028.21
1451.47
2065.72
2054.64
2228.45
2144.15
2274.43
2229.06
2219.82
2154.85
1743.61
2147.98
2035.96
2190.67
2221.04
1520.65
1783.31
2170.33
2259.31
2256.5
2106.25
2230.9
2237.42
2231.27
1114.9
2220.81
1734.3
1203.99
1401.73
2067.75
2175
1552.8
1854.56
1497.83
1345.74
1779.14
1674.98
1408.3
1607.94
1731.03
2155.7
2331.68
1777.46
1979.69
2183.26
2203.68
1441.28
1859.6
1828.25
2093.98
2092.9
2211.79
2150.37
811.974
1061.05
1575.01
1018.55
2046.18
2021.89
2177.93
1694.28
1946.64
1716.08
1819
1744.58
1881.18
1377.96
1010.2
1297.8
1634.72
2090.99
2136.38
2237.83
2025.84
1941.28
1743.5
1613.29
1675.43
1877.76
1759.2
1842.16
1981.92
1522.41
2080.12
2152.69
1794.53
1302.88
2108.65
2103.14
2223.28
1501.57
1760.84
2212.03
2068.58
2274.73
1844.81
1806.67
1897.97
2123.27
2226.44
2050.28
2018.21
2099.17
1859.85
2160.33
2080.7
2176.1
2128.75
1463.11
1140.54
1989.9
1193.71
1363.77
1992.13
2261.22
1699.77
1681.96
1658.25
1609.43
1836.04
2233.03
2054.26
2112.17
1921.71
2241.02
2245.9
2233.26
2236.6
2022.19
1850.02
2007.23
2171.82
2110.68
1763.95
1861.82
2136.45
2272.18
2146.24
2213.33
1719.09
1577.85
1558.2
1335.85
1564.46
2112.94
2141.6
2079.09
2184.95
1273.67
1924.12
1964.53
2108.51
2120.28
2219.56
2166.01
955.346
1141.65
1602.6
1127.26
1304.84
1263.7
1087.66
2093.07
1830.38
1480.77
1755.36
1480.51
751.317
2031.84
1846.88
2178.77
1073.46
882.959
1051.42
634.745
748.342
1059.14
1450.32
949.326
2227.26
2100.31
2190.5
2188.75
2204.96
2220.71
2075.66
1849.44
907.713
1081.8
927.849
838.328
1596.57
1797.98
2133.86
1248.89
1489.09
1402.51
1325.84
2320.33
2079.25
2241.92
2240.69
2236.18
2244.94
2243.35
2123.44
2384.3
2378.29
1741.85
1431.28
2103.74
2003.57
2196.25
2214.77
2208.52
2229.52
2222.17
2209.17
1268.99
1725.12
1694.77
1663.55
1712.19
1244.46
1913.31
2160.91
2162.98
1618.88
1881.91
1554.57
2248.74
2244.89
2248.07
2230.44
2238.84
2238.71
2316.09
2410.25
1933.87
2015.08
2103.41
2239.6
2220.98
2249.33
2247.43
2118.97
950.443
1148.56
2180.12
2270.22
2021.67
935.492
1158.55
699.811
743.153
2191.4
1850.44
2032.21
1064.86
1509.9
1849
2213.78
2192.23
2174.31
2185.61
2091.75
2222.45
2225.24
1346.61
1331.66
1117.31
2013.51
1636.48
1547.23
1235.08
817.599
971.725
990.188
892.818
1201.25
2081.41
1823.97
1339.34
972.398
2184.1
2208.18
2186.14
645.991
741.624
2050.19
1297.27
1867.73
2062.64
1772.98
2240.5
2239.2
2146.6
1436.05
1902.27
1285.01
1015.68
2214.11
2205.16
2037.47
2255.37
2256.94
2094.88
1704.22
1833.09
2152.35
3640.93
3549.73
4035.52
1635.78
1738.01
2048.12
2220.62
2069.74
2054.05
2097.23
2032.86
2225.62
2055.15
2237.25
2112.86
894.504
1322.38
2098.58
2247.98
2085.32
2216.59
2221.77
2026.6
2060.75
2231.43
2071.99
2255.74
1975.64
1196.73
1498.02
1677.66
9162.41
9162.38
18324.8
9162.38
9162.34
9162.38
9162.3
9162.22
9162.32
9162.08
9161.91
9162.17
9161.49
9161.03
9161.77
9160
9158.57
9160.59
9156.71
9152.78
9157.59
9150.49
9140.95
9150.52
9141.08
9121.28
9136.72
9129.42
9096.74
9115.29
9119.05
9074.82
9090.61
9112.58
9063.15
9070.96
9111.3
9060.85
9061.85
9115.66
9068.11
9061.66
9124.86
9086.69
9071.83
9136.53
9111.67
9092.78
9147.3
9134.06
9117.77
9154.66
9148.8
9138.47
9158.96
9156.65
9151.34
9160.99
9160.24
9157.92
9161.91
9161.66
9160.76
9162.26
9162.19
9161.86
9162.38
9162.35
9162.24
9162.42
9162.4
9162.37
9162.43
9162.42
9162.41
18324.9
18324.8
9162.42
9162.36
9162.29
18324.6
9162.31
9162.18
9162.27
9162.18
9161.93
9162.13
9161.83
9161.4
9161.83
9160.78
9159.85
9161.16
9157.87
9154.99
9159.05
9150.74
9141.55
9152.61
9135.71
9110.64
9135.76
9110.15
9052.29
9098.73
9077.52
8973.24
9033.5
9049.56
8907.78
8954.05
9035.21
8886.36
8898.15
9032.42
8881.27
8884.86
9040.97
8890.08
8880.97
9064.1
8939.78
8897.75
9097.34
9021.64
8959.05
9126.65
9090.89
9041.42
9145.59
9131.39
9103.68
9155.5
9150.47
9137.8
9159.86
9158.29
9153.21
9161.6
9161.13
9159.3
9162.15
9161.98
9161.43
9162.33
9162.24
9162.07
9162.4
9162.09
9162.28
9162.42
9162.39
9162.36
18324.8
18324.8
9162.4
9162.25
9162.06
18324.3
9162.1
9161.72
9162.01
9161.79
9161.01
9161.58
9161.06
9159.91
9160.77
9159.46
9157.73
9159.57
9153.65
9148.23
9156.36
9137.21
9118.27
9143.44
9097.6
9035.72
9104.34
9020.11
8842.1
9000.32
8967.38
8904.08
8942.2
8860.27
8753.56
8787.69
8802.67
8675.28
8681.42
8799.28
8684.99
8685.09
8792.66
8667.69
8670.38
8821.72
8696.57
8679.95
8920.03
8837.14
8794.87
9071.99
8976.73
8806.33
9124.34
9091.61
9015.14
9148.12
9137.74
9107.54
9157.57
9154.63
9143.76
9160.87
9160.13
9156.67
9161.89
9161.43
9160.68
9162.19
9161.65
9161.57
9162.07
9162.19
9161.99
9162.38
9162.32
9162.24
18324.8
18324.7
9162.34
9161.96
9161.56
18323.7
9161.52
9160.58
9161.41
9160.57
9158.25
9160.15
9158.86
9154.27
9157.15
4578.42
4573.21
9153.13
4572.49
4556.6
4572.11
4553.58
4504.77
4552.75
4500
4347.32
4493.38
4446.69
4378.88
4446.49
4256.98
4023.29
4190.96
4074.66
3984.27
4013.44
3831.23
3632.2
3685.07
3956.38
3847.68
3911.3
3918.47
3851.14
3771.49
3888.29
3749.14
3725.77
4112.52
4032.65
3981.29
4409.98
4320.61
4202.26
4541.66
4467.87
4294.47
4567.77
4542.46
4481.92
4577.06
4568.94
4547.44
4580.01
4577.67
4570.71
9161.14
9159.15
4578.13
9161.48
9160.81
9159.61
9162.12
9161.76
9161.11
9162.29
9162.16
9161.9
18324.6
18324.6
9162.21
9161.38
9160.69
18322.5
9160.12
9158.22
9160.33
9157.02
9151.33
9157.06
9151.3
9135.44
9148.43
4571.55
4547.09
9129.2
4551.65
4472.57
4542.16
4489.57
4226.32
4455.54
4421.27
4293.68
4395.7
4197.43
4109.21
4178.85
4346.96
4139.65
3881.61
4500.93
4439.08
4366.34
4566.37
4526.1
4427.11
4576.94
4566.08
4533.96
9158.14
9151.26
4568.21
9160.31
9157.98
9153.02
9161.59
9160.85
9158.97
9162.1
9161.87
9161.22
18324.4
18324.3
9161.98
9160.42
9159.54
18321.1
9157.41
9154.6
9158.85
9148.68
9138.2
9152.11
9126.94
9088.28
9130.91
4540.61
4450.7
9064.98
4508.94
4456.46
4502.95
4345.83
4149.64
4309.86
3965.7
3812.08
3938.8
4051.36
3915.73
3790.3
4460.23
4365.69
4237.5
4563.28
4527.89
4375.71
9147.55
9131.05
4536.96
9156.88
9152.75
9139.02
9160.54
9159.46
9155.22
9161.77
9161.48
9160.22
18323.9
18323.9
9161.67
9159.51
9158.53
18319.9
9153.63
9151.08
9157.52
9134.53
9123.59
9147.1
9071.32
9014.55
9108.62
8995.05
8950.25
9010.55
4261.04
3986.75
4275.51
3636
3483.39
3575.62
3694.28
3549.27
3770.67
4443.4
4354.76
4123.74
9123.87
9103.34
4477.41
9151.2
9147.02
9120.63
9159.09
9158.14
9151.28
9161.37
9161.13
9159.3
18323.7
18323.6
9161.42
9158.11
9158.23
18319.2
9150.49
9150.22
9157.12
9121.15
9118.39
9145.49
8998.71
8982.43
9101.01
8798.26
8760.71
8901.62
3761.77
3791.43
3855.8
9098.13
9093.85
4458.99
9146.05
9145.54
9114.95
9157.93
9157.76
9149.84
9161.08
9161.04
9159.03
18323.5
18323.5
9161.35
9158.04
9158.82
18320
9150.49
9152.14
9157.91
9119.89
9128.52
9148.62
8990.18
9039.84
9115.59
8768.74
8810.33
8930.01
9097.02
9114.8
4512.28
9145.82
9149.49
9128.06
9157.88
9158.61
9152.52
9161.07
9161.25
9159.61
18323.5
18323.7
9161.5
9159.07
9159.94
18321.2
9152.77
9155.66
9159.37
9132.6
9143.73
9154.19
9059.11
9108.68
9137.47
4353.94
4514.45
9094.28
4049.42
4315.42
4421.23
3721.26
3551.35
3628.56
3271.11
3497.26
3402.07
4506.05
4553.86
4493.59
9121.99
9140.78
4557.94
9150.96
9155.41
9145.98
9158.98
9160.07
9156.66
9161.34
9161.64
9160.65
18323.8
18324
9161.8
9160.23
9161.28
18322.6
9156.84
9159.17
9160.74
9147.03
9154.37
9158.32
9120.78
9144.92
9152.48
4525.55
4566.46
9141.95
4429.41
4546.19
4564.82
4357.42
4464.14
4491.86
4213.91
4387.04
4415.86
3982.07
4294.97
4327.51
3939.29
4076.18
4073.07
3746.11
3964.05
3956.95
3887.12
4005.59
4012.6
3568.64
3865.28
3877.68
3738.32
3940.52
3908.39
3817.03
3995.4
3995.66
3757.59
3970.21
3964.8
3917.72
4271.35
4257.2
4148.25
4356.51
4319.33
4298.72
4434.88
4408.76
4497.62
4561.05
4538.44
4557.99
4574.65
4563.49
9146.11
9155.52
4575.45
9156.44
9159.41
9156.7
9160.42
9161.29
9160.04
9161.74
9162
9161.54
18324.2
18324.3
9162.07
9161.24
9161.76
18323.7
9159.77
9161.08
9161.65
9156.14
9159.63
9160.8
9149.88
9157.73
9159.16
4569.11
4578.44
9157.13
4553.03
4575.25
4578.25
4527.04
4569.76
4574.6
4497.75
4562.99
4568.98
4473.7
4557.06
4562.22
4459.58
4552.73
4556.38
4449.72
4549.5
4552.23
4441.51
4547.3
4549.13
4442.88
4547.02
4547.16
4446.02
4548.27
4547.12
4450.71
4550.6
4548.42
4464.75
4554.49
4550.98
4486.98
4560.58
4555.14
4516.6
4567.28
4561.44
4543.63
4573.39
4568.14
4564.89
4577.77
4574.08
4575.79
4579.98
4578.17
9157.44
9160.7
4580.11
9160.09
9161.44
9160.87
9161.51
9161.98
9161.6
9162.07
9162.24
9162.07
18324.5
18324.6
9162.27
9161.89
9162.16
18324.4
9161.38
9161.96
9162.12
9160.34
9161.6
9161.88
9159.13
9161.35
9161.51
4579.02
4580.8
9161.37
4576.52
4580.36
4580.77
4571.96
4579.58
4580.33
4566.73
4578.56
4579.46
4561.9
4577.56
4578.43
4558.31
4576.77
4577.42
4555.62
4576.01
4576.66
4553.73
4575.72
4575.94
4553.58
4575.65
4575.69
4554.43
4575.87
4575.66
4556.44
4576.36
4575.91
4559.9
4577.06
4576.45
4564.59
4578.16
4577.24
4570.15
4579.22
4578.29
4575.03
4580.13
4579.35
4578.5
4580.77
4580.23
4580.23
4581.04
4580.77
9161.25
9162.08
4581.05
9161.7
9162.16
9162.08
9162.09
9162.29
9162.19
9162.28
9162.36
9162.31
18324.6
18324.9
9162.37
9162.22
9162.34
18324.6
9162.07
9162.29
9162.33
9161.83
9162.21
9162.27
9161.69
9162.21
9162.2
4580.9
4581.17
9162.24
4580.58
4581.13
4581.17
4579.96
4581.04
4581.12
4579.27
4580.92
4581.02
4578.38
4580.79
4580.9
4577.73
4580.68
4580.78
4577.23
4580.59
4580.67
4576.92
4580.53
4580.58
4576.86
4580.52
4580.53
4577.04
4580.67
4580.52
4577.44
4580.63
4580.56
4578.05
4580.74
4580.64
4578.85
4580.86
4580.75
4579.68
4581
4580.88
4580.38
4581.1
4581.01
4580.86
4581.17
4581.11
4581.08
4581.2
4581.18
9162.2
9162.38
4581.2
9162.24
9162.38
9162.37
9162.33
9162.39
9162.38
9162.38
9162.41
9162.4
18324.8
18324.8
9162.42
9162.36
9162.41
18324.8
9162.33
9162.39
9162.41
9162.28
9162.39
9162.39
9162.29
9162.39
9162.39
4581.18
4581.21
9162.4
4581.15
4581.21
4581.21
4581.08
4581.21
4581.21
4581.02
4581.19
4581.2
4580.9
4581.18
4581.19
4580.81
4581.17
4581.18
4580.75
4581.16
4581.17
4580.7
4581.16
4581.16
4580.69
4581.16
4581.16
4580.61
4581.16
4581.16
4580.78
4581.17
4581.16
4580.85
4581.17
4581.17
4580.95
4581.19
4581.18
4581.05
4581.2
4581.19
4581.13
4581.21
4581.2
4581.18
4581.21
4581.21
4581.21
4581.22
4581.22
9162.4
9162.43
4581.22
9162.39
9162.43
9162.43
9162.41
9162.43
9162.43
9162.42
9162.43
9162.43
18324.7
18325
9162.43
9162.42
9162.43
18324.8
9162.41
9162.43
9162.43
9162.41
9162.43
9162.43
9162.41
9162.43
9162.43
4581.21
9162.43
9162.43
4581.21
9162.43
9162.43
4581.21
9162.43
9162.43
4581.2
9162.43
9162.43
4581.19
9162.43
9162.43
4581.18
9162.42
9162.43
4581.17
9162.42
9162.42
4581.17
9162.42
9162.42
4581.17
9162.42
9162.42
4581.17
9162.42
9162.42
4581.18
9162.42
9162.42
4581.18
9162.43
9162.42
4581.19
9162.43
9162.43
4581.21
9162.43
9162.43
4581.21
9162.43
9162.43
4581.22
9162.44
9162.43
4581.22
9162.45
9162.45
9162.43
9162.44
9162.45
9162.43
9162.43
9162.43
9162.43
9162.43
9162.43
9162.43
9162.43
9162.43
18324.8
18325
9162.43
9162.43
9162.43
18324.9
9162.43
9162.43
9162.43
9162.43
9162.43
9162.43
9162.43
9162.44
9162.43
9162.43
9162.45
9162.44
9162.44
9162.45
9162.45
9162.43
9162.45
9162.45
9162.43
9162.44
9162.45
9162.43
9162.43
9162.44
9162.43
9162.43
9162.43
9162.43
9162.43
9162.43
9162.43
9162.43
9162.43
9162.43
9162.43
9162.43
9162.43
9162.43